# vtk DataFile Version 2.0
step 0 time 0.000000e+00 normalized time 0.000000e+00, generated by -c
ASCII
DATASET UNSTRUCTURED_GRID

POINTS 121 float
0.000000e+00 0.000000e+00 0.000000e+00
1.000000e+00 0.000000e+00 0.000000e+00
1.000000e+00 1.000000e+00 0.000000e+00
0.000000e+00 1.000000e+00 0.000000e+00
1.111111e-01 0.000000e+00 0.000000e+00
2.222222e-01 0.000000e+00 0.000000e+00
3.333333e-01 0.000000e+00 0.000000e+00
4.444444e-01 0.000000e+00 0.000000e+00
5.555556e-01 0.000000e+00 0.000000e+00
6.666667e-01 0.000000e+00 0.000000e+00
7.777778e-01 0.000000e+00 0.000000e+00
8.888889e-01 0.000000e+00 0.000000e+00
1.000000e+00 1.111111e-01 0.000000e+00
1.000000e+00 2.222222e-01 0.000000e+00
1.000000e+00 3.333333e-01 0.000000e+00
1.000000e+00 4.444444e-01 0.000000e+00
1.000000e+00 5.555556e-01 0.000000e+00
1.000000e+00 6.666667e-01 0.000000e+00
1.000000e+00 7.777778e-01 0.000000e+00
1.000000e+00 8.888889e-01 0.000000e+00
8.888889e-01 1.000000e+00 0.000000e+00
7.777778e-01 1.000000e+00 0.000000e+00
6.666667e-01 1.000000e+00 0.000000e+00
5.555556e-01 1.000000e+00 0.000000e+00
4.444444e-01 1.000000e+00 0.000000e+00
3.333333e-01 1.000000e+00 0.000000e+00
2.222222e-01 1.000000e+00 0.000000e+00
1.111111e-01 1.000000e+00 0.000000e+00
0.000000e+00 8.888889e-01 0.000000e+00
0.000000e+00 7.777778e-01 0.000000e+00
0.000000e+00 6.666667e-01 0.000000e+00
0.000000e+00 5.555556e-01 0.000000e+00
0.000000e+00 4.444444e-01 0.000000e+00
0.000000e+00 3.333333e-01 0.000000e+00
0.000000e+00 2.222222e-01 0.000000e+00
0.000000e+00 1.111111e-01 0.000000e+00
5.882681e-01 5.175066e-01 0.000000e+00
6.966796e-01 2.569767e-01 0.000000e+00
3.142019e-01 2.614110e-01 0.000000e+00
6.362429e-01 8.215258e-01 0.000000e+00
2.790113e-01 6.775941e-01 0.000000e+00
9.124239e-01 8.359691e-01 0.000000e+00
1.617073e-01 9.200555e-01 0.000000e+00
8.576027e-01 1.463759e-01 0.000000e+00
9.187729e-01 8.217954e-02 0.000000e+00
8.336228e-02 8.552634e-01 0.000000e+00
4.665241e-01 7.883398e-01 0.000000e+00
2.952069e-01 4.677138e-01 0.000000e+00
5.359868e-01 2.381719e-01 0.000000e+00
7.985055e-01 5.307371e-01 0.000000e+00
4.994193e-01 4.299782e-01 0.000000e+00
5.160906e-01 1.149718e-01 0.000000e+00
1.119881e-01 5.198091e-01 0.000000e+00
8.270415e-01 7.735901e-01 0.000000e+00
6.491349e-01 6.304843e-01 0.000000e+00
6.014366e-01 9.165288e-01 0.000000e+00
2.775641e-01 9.002651e-01 0.000000e+00
6.754868e-01 3.690425e-01 0.000000e+00
7.344444e-01 1.120099e-01 0.000000e+00
2.474624e-01 9.271977e-02 0.000000e+00
8.915003e-01 2.749267e-01 0.000000e+00
8.830296e-02 1.684781e-01 0.000000e+00
1.785431e-01 8.243221e-01 0.000000e+00
7.963107e-01 2.005828e-01 0.000000e+00
8.280247e-01 6.923705e-02 0.000000e+00
9.293550e-01 1.718829e-01 0.000000e+00
8.440849e-01 4.185083e-01 0.000000e+00
6.894468e-01 5.342850e-01 0.000000e+00
7.404567e-01 6.115431e-01 0.000000e+00
3.729281e-01 7.404318e-01 0.000000e+00
2.859076e-01 5.697951e-01 0.000000e+00
7.357831e-01 4.398279e-01 0.000000e+00
1.984205e-01 5.944333e-01 0.000000e+00
2.329506e-01 4.124750e-01 0.000000e+00
5.691734e-01 7.272115e-01 0.000000e+00
1.419018e-01 4.219179e-01 0.000000e+00
3.804047e-01 6.291189e-01 0.000000e+00
8.342541e-01 6.454831e-01 0.000000e+00
7.733076e-01 3.266441e-01 0.000000e+00
4.086262e-01 3.417535e-01 0.000000e+00
7.404268e-01 6.957667e-01 0.000000e+00
4.299563e-01 2.244955e-01 0.000000e+00
3.720695e-01 5.342121e-01 0.000000e+00
4.734984e-01 6.763426e-01 0.000000e+00
3.138834e-01 3.669423e-01 0.000000e+00
4.837868e-01 9.015062e-01 0.000000e+00
6.209144e-01 1.811105e-01 0.000000e+00
3.994103e-01 4.506553e-01 0.000000e+00
2.773657e-01 7.798817e-01 0.000000e+00
5.487701e-01 8.280784e-01 0.000000e+00
9.306203e-02 3.559450e-01 0.000000e+00
5.849701e-01 4.048789e-01 0.000000e+00
2.011997e-01 3.275286e-01 0.000000e+00
9.299210e-01 4.031655e-01 0.000000e+00
3.804849e-01 8.393816e-01 0.000000e+00
9.809738e-02 6.367107e-01 0.000000e+00
7.365409e-01 8.121094e-01 0.000000e+00
6.516379e-01 4.537974e-01 0.000000e+00
5.094968e-01 3.237081e-01 0.000000e+00
9.027362e-01 5.185756e-01 0.000000e+00
8.888048e-02 7.453527e-01 0.000000e+00
9.133120e-01 7.197816e-01 0.000000e+00
1.554378e-01 9.507792e-02 0.000000e+00
3.232043e-01 1.491696e-01 0.000000e+00
1.867198e-01 7.097158e-01 0.000000e+00
9.822265e-02 2.676832e-01 0.000000e+00
6.025655e-01 2.902304e-01 0.000000e+00
2.079768e-01 4.956254e-01 0.000000e+00
7.123613e-02 9.328416e-01 0.000000e+00
6.902485e-02 8.017429e-02 0.000000e+00
4.681721e-01 5.482404e-01 0.000000e+00
4.094058e-01 9.772739e-02 0.000000e+00
3.839227e-01 9.282306e-01 0.000000e+00
6.621780e-01 7.338181e-01 0.000000e+00
2.067712e-01 1.985919e-01 0.000000e+00
7.076256e-01 9.150268e-01 0.000000e+00
6.187343e-01 8.161845e-02 0.000000e+00
9.256803e-01 9.329709e-01 0.000000e+00
8.251398e-01 8.956666e-01 0.000000e+00
9.300605e-01 6.212125e-01 0.000000e+00
5.496494e-01 6.199571e-01 0.000000e+00

CELLS 204 816
3 12 44 1 
3 44 11 1 
3 29 45 28 
3 19 41 18 
3 27 42 26 
3 8 51 7 
3 32 52 31 
3 42 62 56 
3 63 37 58 
3 63 43 60 
3 64 10 11 
3 10 64 58 
3 13 65 12 
3 43 65 60 
3 65 13 60 
3 65 44 12 
3 43 44 65 
3 35 61 34 
3 44 64 11 
3 44 43 64 
3 26 42 56 
3 14 60 13 
3 58 9 10 
3 26 56 25 
3 45 62 42 
3 36 67 54 
3 68 54 67 
3 49 68 67 
3 49 71 66 
3 71 49 67 
3 40 72 70 
3 75 52 32 
3 40 76 69 
3 76 40 70 
3 49 77 68 
3 78 57 37 
3 78 60 66 
3 80 54 68 
3 47 82 70 
3 83 46 69 
3 46 83 74 
3 84 47 73 
3 84 38 79 
3 86 58 37 
3 50 87 79 
3 47 87 82 
3 88 56 62 
3 88 40 69 
3 89 39 55 
3 89 46 74 
3 39 89 74 
3 90 32 33 
3 32 90 75 
3 50 91 36 
3 15 93 14 
3 60 93 66 
3 93 60 14 
3 46 94 69 
3 94 46 85 
3 52 95 31 
3 95 52 72 
3 53 96 80 
3 36 97 67 
3 57 97 91 
3 97 36 91 
3 50 98 91 
3 100 45 29 
3 45 100 62 
3 101 18 41 
3 53 101 41 
3 38 103 81 
3 40 104 72 
3 106 57 91 
3 107 47 70 
3 47 107 73 
3 28 108 3 
3 108 27 3 
3 108 28 45 
3 4 109 0 
3 35 109 61 
3 109 35 0 
3 108 42 27 
3 45 42 108 
3 85 23 24 
3 55 23 85 
3 89 85 46 
3 55 85 89 
3 63 78 37 
3 63 60 78 
3 88 104 40 
3 88 62 104 
3 62 100 104 
3 78 71 57 
3 66 71 78 
3 71 97 57 
3 71 67 97 
3 80 77 53 
3 68 77 80 
3 69 76 83 
3 88 94 56 
3 88 69 94 
3 76 70 82 
3 107 72 52 
3 70 72 107 
3 79 98 50 
3 95 72 104 
3 84 92 38 
3 84 73 92 
3 75 107 52 
3 75 73 107 
3 84 87 47 
3 84 79 87 
3 106 98 48 
3 91 98 106 
3 99 15 16 
3 99 93 15 
3 99 49 66 
3 66 93 99 
3 101 17 18 
3 77 101 53 
3 77 49 99 
3 102 4 5 
3 102 5 59 
3 102 109 4 
3 102 61 109 
3 105 34 61 
3 34 105 33 
3 105 90 33 
3 30 31 95 
3 22 23 55 
3 106 37 57 
3 37 106 86 
3 106 48 86 
3 51 86 48 
3 79 38 81 
3 48 81 51 
3 48 98 81 
3 79 81 98 
3 58 43 63 
3 64 43 58 
3 111 51 81 
3 103 111 81 
3 112 24 25 
3 112 94 85 
3 24 112 85 
3 113 39 74 
3 113 54 80 
3 54 113 74 
3 114 92 105 
3 22 115 21 
3 116 9 58 
3 86 116 58 
3 117 19 2 
3 20 117 2 
3 118 20 21 
3 119 101 77 
3 101 119 17 
3 99 119 77 
3 115 118 21 
3 113 96 39 
3 80 96 113 
3 102 59 114 
3 114 61 102 
3 105 61 114 
3 119 16 17 
3 99 16 119 
3 56 112 25 
3 56 94 112 
3 20 118 117 
3 117 41 19 
3 8 116 51 
3 116 8 9 
3 116 86 51 
3 83 76 110 
3 76 82 110 
3 51 111 7 
3 110 50 36 
3 110 87 50 
3 82 87 110 
3 100 29 30 
3 100 30 95 
3 95 104 100 
3 38 92 114 
3 103 38 114 
3 59 103 114 
3 115 22 55 
3 39 115 55 
3 96 115 39 
3 54 120 36 
3 120 110 36 
3 74 120 54 
3 120 74 83 
3 110 120 83 
3 6 103 59 
3 6 111 103 
3 59 5 6 
3 7 111 6 
3 75 92 73 
3 90 92 75 
3 92 90 105 
3 41 118 53 
3 96 53 118 
3 41 117 118 
3 96 118 115 

CELL_TYPES 204
5
5
5
5
5
5
5
5
5
5
5
5
5
5
5
5
5
5
5
5
5
5
5
5
5
5
5
5
5
5
5
5
5
5
5
5
5
5
5
5
5
5
5
5
5
5
5
5
5
5
5
5
5
5
5
5
5
5
5
5
5
5
5
5
5
5
5
5
5
5
5
5
5
5
5
5
5
5
5
5
5
5
5
5
5
5
5
5
5
5
5
5
5
5
5
5
5
5
5
5
5
5
5
5
5
5
5
5
5
5
5
5
5
5
5
5
5
5
5
5
5
5
5
5
5
5
5
5
5
5
5
5
5
5
5
5
5
5
5
5
5
5
5
5
5
5
5
5
5
5
5
5
5
5
5
5
5
5
5
5
5
5
5
5
5
5
5
5
5
5
5
5
5
5
5
5
5
5
5
5
5
5
5
5
5
5
5
5
5
5
5
5
5
5
5
5
5
5
5
5
5
5
5
5

POINT_DATA 121

SCALARS node_groups int 1
LOOKUP_TABLE default
0
0
0
0
0
0
0
0
0
0
0
0
0
0
0
0
0
0
0
0
0
0
0
0
0
0
0
0
0
0
0
0
0
0
0
0
0
0
0
0
0
0
0
0
0
0
0
0
0
0
0
0
0
0
0
0
0
0
0
0
0
0
0
0
0
0
0
0
0
0
0
0
0
0
0
0
0
0
0
0
0
0
0
0
0
0
0
0
0
0
0
0
0
0
0
0
0
0
0
0
0
0
0
0
0
0
0
0
0
0
0
0
0
0
0
0
0
0
0
0
0

VECTORS u float
0.000000e+00 0.000000e+00 0.000000e+00
0.000000e+00 0.000000e+00 0.000000e+00
-1.498801e-15 1.000000e+00 0.000000e+00
-6.097553e-16 1.000000e+00 0.000000e+00
0.000000e+00 0.000000e+00 0.000000e+00
0.000000e+00 0.000000e+00 0.000000e+00
0.000000e+00 0.000000e+00 0.000000e+00
0.000000e+00 0.000000e+00 0.000000e+00
0.000000e+00 0.000000e+00 0.000000e+00
0.000000e+00 0.000000e+00 0.000000e+00
0.000000e+00 0.000000e+00 0.000000e+00
0.000000e+00 0.000000e+00 0.000000e+00
-3.285133e-17 1.111111e-01 0.000000e+00
-6.765422e-17 2.222222e-01 0.000000e+00
-2.740863e-16 3.333333e-01 0.000000e+00
-3.053113e-16 4.444444e-01 0.000000e+00
-2.914335e-16 5.555556e-01 0.000000e+00
-4.753142e-16 6.666667e-01 0.000000e+00
-6.383782e-16 7.777778e-01 0.000000e+00
-1.082467e-15 8.888889e-01 0.000000e+00
-1.484923e-15 1.000000e+00 0.000000e+00
-1.228184e-15 1.000000e+00 0.000000e+00
-9.159340e-16 1.000000e+00 0.000000e+00
-5.412337e-16 1.000000e+00 0.000000e+00
-7.632783e-16 1.000000e+00 0.000000e+00
-5.134781e-16 1.000000e+00 0.000000e+00
-3.885781e-16 1.000000e+00 0.000000e+00
-5.551115e-16 1.000000e+00 0.000000e+00
-8.101159e-16 8.888889e-01 0.000000e+00
-7.389922e-16 7.777778e-01 0.000000e+00
-7.910339e-16 6.666667e-01 0.000000e+00
-6.383782e-16 5.555556e-01 0.000000e+00
-5.273559e-16 4.444444e-01 0.000000e+00
-4.093947e-16 3.333333e-01 0.000000e+00
-2.543538e-16 2.222222e-01 0.000000e+00
-8.847090e-17 1.111111e-01 0.000000e+00
-4.706522e-16 5.175066e-01 0.000000e+00
-2.029626e-16 2.569767e-01 0.000000e+00
-2.844947e-16 2.614110e-01 0.000000e+00
-7.771561e-16 8.215258e-01 0.000000e+00
-7.216450e-16 6.775941e-01 0.000000e+00
-7.754214e-16 8.359691e-01 0.000000e+00
-6.800116e-16 9.200555e-01 0.000000e+00
-3.816392e-17 1.463759e-01 0.000000e+00
-1.474515e-17 8.217954e-02 0.000000e+00
-8.187895e-16 8.552634e-01 0.000000e+00
-7.927686e-16 7.883398e-01 0.000000e+00
-5.672546e-16 4.677138e-01 0.000000e+00
-1.864828e-16 2.381719e-01 0.000000e+00
-3.677614e-16 5.307371e-01 0.000000e+00
-4.302114e-16 4.299782e-01 0.000000e+00
-8.413409e-17 1.149718e-01 0.000000e+00
-6.353425e-16 5.198091e-01 0.000000e+00
-6.748074e-16 7.735901e-01 0.000000e+00
-5.143455e-16 6.304843e-01 0.000000e+00
-9.159340e-16 9.165288e-01 0.000000e+00
-6.106227e-16 9.002651e-01 0.000000e+00
-2.889738e-16 3.690425e-01 0.000000e+00
-4.683753e-17 1.120099e-01 0.000000e+00
-9.822872e-17 9.271977e-02 0.000000e+00
-1.387779e-16 2.749267e-01 0.000000e+00
-1.734723e-16 1.684781e-01 0.000000e+00
-8.049117e-16 8.243221e-01 0.000000e+00
-8.451356e-17 2.005828e-01 0.000000e+00
-1.994932e-17 6.923705e-02 0.000000e+00
-4.813858e-17 1.718829e-01 0.000000e+00
-3.365364e-16 4.185083e-01 0.000000e+00
-3.933485e-16 5.342850e-01 0.000000e+00
-4.475587e-16 6.115431e-01 0.000000e+00
-7.910339e-16 7.404318e-01 0.000000e+00
-6.487866e-16 5.697951e-01 0.000000e+00
-3.217912e-16 4.398279e-01 0.000000e+00
-7.112366e-16 5.944333e-01 0.000000e+00
-5.247539e-16 4.124750e-01 0.000000e+00
-7.008283e-16 7.272115e-01 0.000000e+00
-5.134781e-16 4.219179e-01 0.000000e+00
-6.574602e-16 6.291189e-01 0.000000e+00
-4.154663e-16 6.454831e-01 0.000000e+00
-2.628106e-16 3.266441e-01 0.000000e+00
-3.955170e-16 3.417535e-01 0.000000e+00
-5.342948e-16 6.957667e-01 0.000000e+00
-1.908196e-16 2.244955e-01 0.000000e+00
-6.054185e-16 5.342121e-01 0.000000e+00
-6.973588e-16 6.763426e-01 0.000000e+00
-4.683753e-16 3.669423e-01 0.000000e+00
-8.049117e-16 9.015062e-01 0.000000e+00
-1.422473e-16 1.811105e-01 0.000000e+00
-5.412337e-16 4.506553e-01 0.000000e+00
-7.598089e-16 7.798817e-01 0.000000e+00
-8.743006e-16 8.280784e-01 0.000000e+00
-4.406198e-16 3.559450e-01 0.000000e+00
-3.295975e-16 4.048789e-01 0.000000e+00
-3.608225e-16 3.275286e-01 0.000000e+00
-3.400058e-16 4.031655e-01 0.000000e+00
-5.759282e-16 8.393816e-01 0.000000e+00
-7.147061e-16 6.367107e-01 0.000000e+00
-7.147061e-16 8.121094e-01 0.000000e+00
-3.269954e-16 4.537974e-01 0.000000e+00
-2.949030e-16 3.237081e-01 0.000000e+00
-3.517152e-16 5.185756e-01 0.000000e+00
-7.459311e-16 7.453527e-01 0.000000e+00
-5.620504e-16 7.197816e-01 0.000000e+00
-9.367507e-17 9.507792e-02 0.000000e+00
-1.431147e-16 1.491696e-01 0.000000e+00
-7.389922e-16 7.097158e-01 0.000000e+00
-3.122502e-16 2.676832e-01 0.000000e+00
-2.185752e-16 2.902304e-01 0.000000e+00
-6.262352e-16 4.956254e-01 0.000000e+00
-7.285839e-16 9.328416e-01 0.000000e+00
-6.375109e-17 8.017429e-02 0.000000e+00
-6.023827e-16 5.482404e-01 0.000000e+00
-7.892992e-17 9.772739e-02 0.000000e+00
-6.383782e-16 9.282306e-01 0.000000e+00
-6.418477e-16 7.338181e-01 0.000000e+00
-2.185752e-16 1.985919e-01 0.000000e+00
-8.881784e-16 9.150268e-01 0.000000e+00
-4.943962e-17 8.161845e-02 0.000000e+00
-1.221245e-15 9.329709e-01 0.000000e+00
-8.812395e-16 8.956666e-01 0.000000e+00
-3.885781e-16 6.212125e-01 0.000000e+00
-6.349088e-16 6.199571e-01 0.000000e+00

CELL_DATA 204
SCALARS mat_id int 1
LOOKUP_TABLE default
0
0
0
0
0
0
0
0
0
0
0
0
0
0
0
0
0
0
0
0
0
0
0
0
0
0
0
0
0
0
0
0
0
0
0
0
0
0
0
0
0
0
0
0
0
0
0
0
0
0
0
0
0
0
0
0
0
0
0
0
0
0
0
0
0
0
0
0
0
0
0
0
0
0
0
0
0
0
0
0
0
0
0
0
0
0
0
0
0
0
0
0
0
0
0
0
0
0
0
0
0
0
0
0
0
0
0
0
0
0
0
0
0
0
0
0
0
0
0
0
0
0
0
0
0
0
0
0
0
0
0
0
0
0
0
0
0
0
0
0
0
0
0
0
0
0
0
0
0
0
0
0
0
0
0
0
0
0
0
0
0
0
0
0
0
0
0
0
0
0
0
0
0
0
0
0
0
0
0
0
0
0
0
0
0
0
0
0
0
0
0
0
0
0
0
0
0
0
0
0
0
0
0
0
